created by fftool

324 atoms
348 bonds
612 angles
1038 dihedrals
19 atom types
32 bond types
54 angle types
84 dihedral types
0.000000 33.000000 xlo xhi
0.000000 33.000000 ylo yhi
0.000000 33.000000 zlo zhi

Masses

   1   12.011  # CT1
   2   12.011  # CA1
   3   12.011  # CT7
   4   14.007  # NI1
   5   12.011  # CI1
   6   12.011  # CI2
   7   14.007  # NI2
   8   12.011  # CT2
   9   12.011  # CT3
  10   12.011  # CT4
  11   15.999  # OY
  12   12.011  # CA2
  13   12.011  # CA
  14   12.011  # CT5
  15   14.007  # NT
  16   12.011  # CT6
  17   12.011  # CR
  18    1.008  # HC
  19    1.008  # HA

Bond Coeffs

   1   317.005258     1.510000  # CT1-CA1
   2   382.002868     1.448000  # NT-CT1
   3   340.000000     1.090000  # CT1-HC
   4   468.999761     1.400000  # CA1-CA1
   5   367.000478     1.080000  # CA1-HA
   6   336.998088     1.466000  # CT7-NI1
   7   339.985660     1.090000  # CT7-HC
   8   427.103250     1.378000  # NI1-CI1
   9   477.055449     1.315000  # NI1-CR
  10   520.076482     1.341000  # CI1-CI2
  11   339.985660     1.080000  # CI1-HA
  12   339.985660     1.080000  # CI2-HA
  13   427.103250     1.378000  # CI2-NI2
  14   336.998088     1.466000  # NI2-CT2
  15   477.055449     1.315000  # NI2-CR
  16   340.000000     1.090000  # CT2-HC
  17   267.999522     1.529000  # CT2-CT3
  18   340.000000     1.090000  # CT3-HC
  19   267.999522     1.529000  # CT3-CT4
  20   340.000000     1.090000  # CT4-HC
  21   320.004780     1.410000  # CT4-OY
  22   320.004780     1.410000  # OY-CA2
  23   469.000956     1.400000  # CA2-CA
  24   367.005258     1.080000  # CA-HA
  25   468.999761     1.400000  # CA-CA
  26   317.005258     1.510000  # CA-CT5
  27   340.000000     1.090000  # CT5-HC
  28   382.002868     1.448000  # CT5-NT
  29   382.002868     1.448000  # NT-CT6
  30   340.000000     1.090000  # CT6-HC
  31   520.076482     1.341000  # CT6-CT6
  32   339.985660     1.080000  # CR-HA

Angle Coeffs

   1    56.202199   112.300000  # NT-CT1-CA1
   2    50.000000   109.500000  # HC-CT1-CA1
   3    35.002390   109.500000  # NT-CT1-HC
   4    32.994742   107.800000  # HC-CT1-HC
   5    70.004780   120.000000  # CT1-CA1-CA1
   6    63.001912   120.000000  # CA1-CA1-CA1
   7    35.002390   120.000000  # CA1-CA1-HA
   8    37.500000   110.700000  # NI1-CT7-HC
   9    32.994742   107.800000  # HC-CT7-HC
  10    70.004780   125.600000  # CT7-NI1-CI1
  11    70.004780   126.400000  # CT7-NI1-CR
  12    70.004780   108.000000  # CI1-NI1-CR
  13    70.004780   107.100000  # NI1-CI1-CI2
  14    35.002390   122.000000  # NI1-CI1-HA
  15    35.002390   130.900000  # HA-CI1-CI2
  16    35.002390   130.900000  # CI1-CI2-HA
  17    70.004780   107.100000  # CI1-CI2-NI2
  18    35.002390   122.000000  # HA-CI2-NI2
  19    70.004780   125.600000  # CI2-NI2-CT2
  20    70.004780   108.000000  # CR-NI2-CI2
  21    70.004780   126.400000  # CR-NI2-CT2
  22    37.500000   110.700000  # NI2-CT2-HC
  23    58.353250   112.700000  # NI2-CT2-CT3
  24    37.500000   110.700000  # HC-CT2-CT3
  25    32.994742   107.800000  # HC-CT2-HC
  26    37.500000   110.700000  # CT2-CT3-HC
  27    58.353250   112.700000  # CT2-CT3-CT4
  28    37.500000   110.700000  # HC-CT3-CT4
  29    32.994742   107.800000  # HC-CT3-HC
  30    37.500000   110.700000  # CT3-CT4-HC
  31    50.000000   109.500000  # CT3-CT4-OY
  32    35.002390   109.500000  # HC-CT4-OY
  33    32.994742   107.800000  # HC-CT4-HC
  34    60.002390   111.000000  # CT4-OY-CA2
  35    50.000000   120.000000  # OY-CA2-CA
  36    63.001912   120.000000  # CA-CA2-CA
  37    35.002390   120.000000  # CA2-CA-HA
  38    63.001912   120.000000  # CA2-CA-CA
  39    35.002390   120.000000  # HA-CA-CA
  40    63.001912   120.000000  # CA-CA-CA
  41    70.004780   120.000000  # CA-CA-CT5
  42    50.000000   109.500000  # CA-CT5-HC
  43    58.353250   112.300000  # CA-CT5-NT
  44    35.002390   109.500000  # HC-CT5-NT
  45    58.353250   109.000000  # NT-CT5-NT
  46    51.804493   107.200000  # CT5-NT-CT1
  47    51.804493   107.200000  # CT1-NT-CT6
  48    51.804493   107.200000  # CT5-NT-CT6
  49    35.002390   109.500000  # NT-CT6-HC
  50    56.202199   109.500000  # NT-CT6-CT6
  51    32.994742   107.800000  # HC-CT6-HC
  52    70.004780   109.800000  # NI1-CR-NI2
  53    35.002390   125.100000  # NI1-CR-HA
  54    35.002390   125.100000  # HA-CR-NI2

Dihedral Coeffs

   1     0.000000     0.088671     0.066922     0.000000  # NT-CT1-CA1-CA1
   2     0.000000     0.000000     0.000000     0.000000  # HC-CT1-CA1-CA1
   3     0.394837    -0.153442     0.487572     0.000000  # CA1-CT1-NT-CT5
   4     0.394837    -0.153442     0.487572     0.000000  # CA1-CT1-NT-CT6
   5     0.000000     0.000000     0.133843     0.000000  # HC-CT1-NT-CT5
   6     0.000000     0.000000     0.133843     0.000000  # HC-CT1-NT-CT6
   7     0.000000     1.732792     0.000000     0.000000  # CT1-CA1-CA1-CA1
   8     0.000000     1.732792     0.000000     0.000000  # CT1-CA1-CA1-HA
   9     0.000000     1.732792     0.000000     0.000000  # CA1-CA1-CA1-CA1
  10     0.000000     1.732792     0.000000     0.000000  # CA1-CA1-CA1-HA
  11     0.000000     0.000000     0.000000     0.000000  # HC-CT7-NI1-CI1
  12     0.000000     0.000000     0.000000     0.000000  # HC-CT7-NI1-CR
  13     0.000000     1.732792     0.000000     0.000000  # CT7-NI1-CI1-CI2
  14     0.000000     1.732792     0.000000     0.000000  # CT7-NI1-CI1-HA
  15     0.000000     1.732792     0.000000     0.000000  # CR-NI1-CI1-CI2
  16     0.000000     1.732792     0.000000     0.000000  # CR-NI1-CI1-HA
  17     0.000000     1.732792     0.000000     0.000000  # CT7-NI1-CR-NI2
  18     0.000000     1.732792     0.000000     0.000000  # CT7-NI1-CR-HA
  19     0.000000     1.732792     0.000000     0.000000  # CI1-NI1-CR-NI2
  20     0.000000     1.732792     0.000000     0.000000  # CI1-NI1-CR-HA
  21     0.000000     2.569312     0.000000     0.000000  # NI1-CI1-CI2-HA
  22     0.000000     2.569312     0.000000     0.000000  # NI1-CI1-CI2-NI2
  23     0.000000     1.732792     0.000000     0.000000  # HA-CI1-CI2-HA
  24     0.000000     2.569312     0.000000     0.000000  # HA-CI1-CI2-NI2
  25     0.000000     1.732792     0.000000     0.000000  # CI1-CI2-NI2-CT2
  26     0.000000     1.732792     0.000000     0.000000  # CI1-CI2-NI2-CR
  27     0.000000     1.732792     0.000000     0.000000  # HA-CI2-NI2-CT2
  28     0.000000     1.732792     0.000000     0.000000  # HA-CI2-NI2-CR
  29     0.000000     0.000000     0.000000     0.000000  # CI2-NI2-CT2-HC
  30     0.527008     0.007887     0.186902     0.000000  # CI2-NI2-CT2-CT3
  31     0.000000     0.000000     0.000000     0.000000  # CR-NI2-CT2-HC
  32     0.527008     0.007887     0.186902     0.000000  # CR-NI2-CT2-CT3
  33     0.000000     1.732792     0.000000     0.000000  # CI2-NI2-CR-NI1
  34     0.000000     1.732792     0.000000     0.000000  # CI2-NI2-CR-HA
  35     0.000000     1.732792     0.000000     0.000000  # CT2-NI2-CR-NI1
  36     0.000000     1.732792     0.000000     0.000000  # CT2-NI2-CR-HA
  37     0.000000     0.000000     0.071702     0.000000  # NI2-CT2-CT3-HC
  38    -0.308795     0.279159     0.000000     0.000000  # NI2-CT2-CT3-CT4
  39     0.000000     0.000000     0.071702     0.000000  # HC-CT2-CT3-HC
  40     0.000000     0.000000     0.071702     0.000000  # HC-CT2-CT3-CT4
  41     0.000000     0.000000     0.071702     0.000000  # CT2-CT3-CT4-HC
  42     0.299952    -0.147945     0.130497     0.000000  # CT2-CT3-CT4-OY
  43     0.000000     0.000000     0.071702     0.000000  # HC-CT3-CT4-HC
  44     0.000000     0.000000     0.111855     0.000000  # HC-CT3-CT4-OY
  45    -0.157027    -0.171128     0.162285     0.000000  # CT3-CT4-OY-CA2
  46     0.000000     0.000000     0.038480     0.000000  # HC-CT4-OY-CA2
  47     0.000000     0.935946     0.000000     0.000000  # CT4-OY-CA2-CA
  48     0.000000     1.732792     0.000000     0.000000  # OY-CA2-CA-HA
  49     0.000000     1.732792     0.000000     0.000000  # OY-CA2-CA-CA
  50     0.000000     1.732792     0.000000     0.000000  # CA-CA2-CA-HA
  51     0.000000     1.732792     0.000000     0.000000  # CA-CA2-CA-CA
  52     0.000000     1.732792     0.000000     0.000000  # HA-CA-CA-CA2
  53     0.000000     1.732792     0.000000     0.000000  # CA-CA-CA-CA2
  54     0.000000     1.732792     0.000000     0.000000  # HA-CA-CA-HA
  55     0.000000     1.732792     0.000000     0.000000  # HA-CA-CA-CA
  56     0.000000     1.732792     0.000000     0.000000  # CT5-CA-CA-CA
  57     0.000000     1.732792     0.000000     0.000000  # CA-CA-CA-CA
  58     0.000000     1.732792     0.000000     0.000000  # CT5-CA-CA-HA
  59     0.000000     0.000000     0.000000     0.000000  # CA-CA-CT5-HC
  60     0.000000     0.088671     0.066922     0.000000  # CA-CA-CT5-NT
  61     0.394837    -0.153442     0.487572     0.000000  # CA-CT5-NT-CT1
  62     0.394837    -0.153442     0.487572     0.000000  # CA-CT5-NT-CT6
  63     0.000000     0.000000     0.133843     0.000000  # HC-CT5-NT-CT1
  64     0.000000     0.000000     0.133843     0.000000  # HC-CT5-NT-CT6
  65     0.110899     0.010038     0.119264     0.000000  # NT-CT5-NT-CT1
  66     0.110899     0.010038     0.119264     0.000000  # NT-CT5-NT-CT6
  67     0.000000     0.000000     0.133843     0.000000  # CT1-NT-CT6-HC
  68     0.112094     0.009799     0.120698     0.000000  # CT1-NT-CT6-CT6
  69     0.000000     0.000000     0.133843     0.000000  # CT5-NT-CT6-HC
  70     0.112094     0.009799     0.120698     0.000000  # CT5-NT-CT6-CT6
  71     0.000000     0.000000     0.071702     0.000000  # HC-CT6-CT6-NT
  72     0.271272    -0.036090     0.095602     0.000000  # NT-CT6-CT6-NT
  73     0.000000     0.000000     0.071702     0.000000  # HC-CT6-CT6-HC
  74     0.000000     1.912046     0.000000     0.000000  # CA1-CT1-CA1-CA1
  75     0.000000     0.525813     0.000000     0.000000  # CA1-HA-CA1-CA1
  76     0.000000     1.912046     0.000000     0.000000  # CR-CI1-NI1-CT7
  77     0.000000     0.525813     0.000000     0.000000  # CI2-HA-CI1-NI1
  78     0.000000     0.525813     0.000000     0.000000  # HA-NI2-CI2-CI1
  79     0.000000     1.912046     0.000000     0.000000  # CT2-CR-NI2-CI2
  80     0.000000     1.912046     0.000000     0.000000  # CA-CA-CA2-OY
  81     0.000000     0.525813     0.000000     0.000000  # CA-HA-CA-CA2
  82     0.000000     0.525813     0.000000     0.000000  # HA-CA-CA-CA
  83     0.000000     1.912046     0.000000     0.000000  # CA-CT5-CA-CA
  84     0.000000     0.525813     0.000000     0.000000  # NI2-HA-CR-NI1

Atoms

      1       1    1   0.205000  1.368779e+01  1.630841e+01  2.022788e+01  # CT1 rcc1
      2       1    2  -0.141750  1.355332e+01  1.581803e+01  1.878486e+01  # CA1 rcc1
      3       1    2  -0.141750  1.321294e+01  1.449056e+01  1.850449e+01  # CA1 rcc1
      4       1    2  -0.141750  1.323019e+01  1.400250e+01  1.719256e+01  # CA1 rcc1
      5       1    1   0.205000  1.285418e+01  1.255171e+01  1.688612e+01  # CT1 rcc1
      6       1    2  -0.141750  1.354697e+01  1.487372e+01  1.614810e+01  # CA1 rcc1
      7       1    2  -0.141750  1.389598e+01  1.620382e+01  1.640602e+01  # CA1 rcc1
      8       1    1   0.205000  1.444474e+01  1.707749e+01  1.527691e+01  # CT1 rcc1
      9       1    2  -0.141750  1.387283e+01  1.667420e+01  1.772480e+01  # CA1 rcc1
     10       1    1   0.205000  1.149789e+01  1.691304e+01  2.450985e+01  # CT1 rcc1
     11       1    2  -0.141750  1.257143e+01  1.608375e+01  2.522498e+01  # CA1 rcc1
     12       1    2  -0.141750  1.388133e+01  1.656763e+01  2.529736e+01  # CA1 rcc1
     13       1    2  -0.141750  1.492009e+01  1.576796e+01  2.577783e+01  # CA1 rcc1
     14       1    1   0.205000  1.636765e+01  1.619000e+01  2.553744e+01  # CT1 rcc1
     15       1    2  -0.141750  1.462951e+01  1.448069e+01  2.624008e+01  # CA1 rcc1
     16       1    2  -0.141750  1.332712e+01  1.397704e+01  2.617942e+01  # CA1 rcc1
     17       1    1   0.205000  1.307925e+01  1.249843e+01  2.647097e+01  # CT1 rcc1
     18       1    2  -0.141750  1.230294e+01  1.478210e+01  2.566573e+01  # CA1 rcc1
     19       1    1   0.205000  1.689181e+01  1.483430e+01  1.705024e+01  # CT1 rcc1
     20       1    2  -0.141750  1.786927e+01  1.439998e+01  1.813937e+01  # CA1 rcc1
     21       1    2  -0.141750  1.846292e+01  1.313381e+01  1.809662e+01  # CA1 rcc1
     22       1    2  -0.141750  1.933775e+01  1.272000e+01  1.910878e+01  # CA1 rcc1
     23       1    1   0.205000  1.984285e+01  1.127699e+01  1.914229e+01  # CT1 rcc1
     24       1    2  -0.141750  1.964470e+01  1.360580e+01  2.014788e+01  # CA1 rcc1
     25       1    2  -0.141750  1.905689e+01  1.487349e+01  2.020687e+01  # CA1 rcc1
     26       1    1   0.205000  1.920529e+01  1.572766e+01  2.146551e+01  # CT1 rcc1
     27       1    2  -0.141750  1.817364e+01  1.526402e+01  1.919678e+01  # CA1 rcc1
     28       1    1   0.205000  1.385913e+01  8.157126e+00  1.894979e+01  # CT1 rcc1
     29       1    2  -0.141750  1.456459e+01  7.800221e+00  2.025292e+01  # CA1 rcc1
     30       1    2  -0.141750  1.390883e+01  7.998302e+00  2.147093e+01  # CA1 rcc1
     31       1    2  -0.141750  1.460137e+01  7.905609e+00  2.268197e+01  # CA1 rcc1
     32       1    1   0.205000  1.390869e+01  8.288997e+00  2.399010e+01  # CT1 rcc1
     33       1    2  -0.141750  1.597058e+01  7.616693e+00  2.266092e+01  # CA1 rcc1
     34       1    2  -0.141750  1.663753e+01  7.388074e+00  2.144982e+01  # CA1 rcc1
     35       1    1   0.205000  1.815420e+01  7.184512e+00  2.143247e+01  # CT1 rcc1
     36       1    2  -0.141750  1.592608e+01  7.484542e+00  2.025057e+01  # CA1 rcc1
     37       1    3   0.057500  1.464238e+01  3.056856e+01  2.323244e+01  # CT7 rcc1
     38       1    4   0.150000  1.447341e+01  2.938015e+01  2.241346e+01  # NI1 rcc1
     39       1    5  -0.130000  1.509258e+01  2.912415e+01  2.119868e+01  # CI1 rcc1
     40       1    6  -0.130000  1.463791e+01  2.789454e+01  2.072793e+01  # CI2 rcc1
     41       1    7   0.150000  1.372201e+01  2.740024e+01  2.164819e+01  # NI2 rcc1
     42       1    8   0.002500  1.300096e+01  2.613461e+01  2.155546e+01  # CT2 rcc1
     43       1    9  -0.120000  1.392144e+01  2.494046e+01  2.188210e+01  # CT3 rcc1
     44       1   10   0.140000  1.319013e+01  2.359284e+01  2.181326e+01  # CT4 rcc1
     45       1   11  -0.400000  1.412280e+01  2.256147e+01  2.212943e+01  # OY rcc1
     46       1   12   0.085000  1.369823e+01  2.124679e+01  2.214875e+01  # CA2 rcc1
     47       1   13  -0.115000  1.238793e+01  2.083259e+01  2.186624e+01  # CA rcc1
     48       1   13  -0.115000  1.205440e+01  1.948107e+01  2.191349e+01  # CA rcc1
     49       1   13  -0.115000  1.302046e+01  1.852595e+01  2.224830e+01  # CA rcc1
     50       1   14   0.475000  1.267416e+01  1.702982e+01  2.229841e+01  # CT5 rcc1
     51       1   15  -0.630000  1.242607e+01  1.645622e+01  2.097656e+01  # NT rcc1
     52       1   16   0.003700  1.181196e+01  1.517686e+01  2.132016e+01  # CT6 rcc1
     53       1   16   0.003700  1.097794e+01  1.544248e+01  2.257219e+01  # CT6 rcc1
     54       1   15  -0.630000  1.144730e+01  1.674118e+01  2.304272e+01  # NT rcc1
     55       1   13  -0.115000  1.432805e+01  1.893864e+01  2.251963e+01  # CA rcc1
     56       1   13  -0.115000  1.465986e+01  2.029021e+01  2.247205e+01  # CA rcc1
     57       1   17   0.190000  1.362634e+01  2.832174e+01  2.267474e+01  # CR rcc1
     58       1    3   0.057500  2.213224e+01  1.418049e+01  2.330265e+00  # CT7 rcc1
     59       1    4   0.150000  2.215287e+01  1.481568e+01  3.637062e+00  # NI1 rcc1
     60       1    5  -0.130000  2.240815e+01  1.615440e+01  3.896020e+00  # CI1 rcc1
     61       1    6  -0.130000  2.229679e+01  1.636214e+01  5.268762e+00  # CI2 rcc1
     62       1    7   0.150000  2.196169e+01  1.514844e+01  5.855878e+00  # NI2 rcc1
     63       1    8   0.002500  2.172776e+01  1.491140e+01  7.276898e+00  # CT2 rcc1
     64       1    9  -0.120000  2.035531e+01  1.546125e+01  7.717131e+00  # CT3 rcc1
     65       1   10   0.140000  2.007203e+01  1.522722e+01  9.207292e+00  # CT4 rcc1
     66       1   11  -0.400000  1.879115e+01  1.577704e+01  9.507683e+00  # OY rcc1
     67       1   12   0.085000  1.832032e+01  1.572964e+01  1.080564e+01  # CA2 rcc1
     68       1   13  -0.115000  1.900548e+01  1.514180e+01  1.187800e+01  # CA rcc1
     69       1   13  -0.115000  1.844940e+01  1.514910e+01  1.315536e+01  # CA rcc1
     70       1   13  -0.115000  1.720707e+01  1.575479e+01  1.339406e+01  # CA rcc1
     71       1   14   0.475000  1.655897e+01  1.574581e+01  1.479901e+01  # CT5 rcc1
     72       1   15  -0.630000  1.591117e+01  1.703210e+01  1.510664e+01  # NT rcc1
     73       1   16   0.003700  1.671932e+01  1.773208e+01  1.609853e+01  # CT6 rcc1
     74       1   16   0.003700  1.796857e+01  1.686144e+01  1.619848e+01  # CT6 rcc1
     75       1   15  -0.630000  1.751672e+01  1.550447e+01  1.589362e+01  # NT rcc1
     76       1   13  -0.115000  1.651946e+01  1.631749e+01  1.231072e+01  # CA rcc1
     77       1   13  -0.115000  1.707475e+01  1.630951e+01  1.103379e+01  # CA rcc1
     78       1   17   0.190000  2.186617e+01  1.421047e+01  4.844391e+00  # CR rcc1
     79       1    3   0.057500  1.241785e+01  2.989217e+00  6.139981e+00  # CT7 rcc1
     80       1    4   0.150000  1.271320e+01  4.236855e+00  6.823984e+00  # NI1 rcc1
     81       1    5  -0.130000  1.250168e+01  5.515424e+00  6.329018e+00  # CI1 rcc1
     82       1    6  -0.130000  1.294564e+01  6.430602e+00  7.280660e+00  # CI2 rcc1
     83       1    7   0.150000  1.344879e+01  5.712040e+00  8.358055e+00  # NI2 rcc1
     84       1    8   0.002500  1.401443e+01  6.271616e+00  9.581644e+00  # CT2 rcc1
     85       1    9  -0.120000  1.291017e+01  6.821426e+00  1.050803e+01  # CT3 rcc1
     86       1   10   0.140000  1.346659e+01  7.400812e+00  1.181590e+01  # CT4 rcc1
     87       1   11  -0.400000  1.236984e+01  7.874648e+00  1.259405e+01  # OY rcc1
     88       1   12   0.085000  1.260916e+01  8.428406e+00  1.383683e+01  # CA2 rcc1
     89       1   13  -0.115000  1.388077e+01  8.579689e+00  1.440763e+01  # CA rcc1
     90       1   13  -0.115000  1.402086e+01  9.149013e+00  1.567136e+01  # CA rcc1
     91       1   13  -0.115000  1.289531e+01  9.574950e+00  1.639002e+01  # CA rcc1
     92       1   14   0.475000  1.297952e+01  1.021997e+01  1.779514e+01  # CT5 rcc1
     93       1   15  -0.630000  1.345248e+01  1.160023e+01  1.782940e+01  # NT rcc1
     94       1   16   0.003700  1.490916e+01  1.152084e+01  1.781590e+01  # CT6 rcc1
     95       1   16   0.003700  1.521459e+01  1.023101e+01  1.857529e+01  # CT6 rcc1
     96       1   15  -0.630000  1.390106e+01  9.609796e+00  1.874712e+01  # NT rcc1
     97       1   13  -0.115000  1.163078e+01  9.425763e+00  1.581198e+01  # CA rcc1
     98       1   13  -0.115000  1.149138e+01  8.857493e+00  1.454860e+01  # CA rcc1
     99       1   17   0.190000  1.330465e+01  4.368468e+00  8.064518e+00  # CR rcc1
    100       1    3   0.057500  3.005027e+01  1.668891e+01  3.002013e+01  # CT7 rcc1
    101       1    4   0.150000  2.859991e+01  1.673088e+01  3.009955e+01  # NI1 rcc1
    102       1    5  -0.130000  2.784475e+01  1.757580e+01  3.089991e+01  # CI1 rcc1
    103       1    6  -0.130000  2.649762e+01  1.732173e+01  3.065313e+01  # CI2 rcc1
    104       1    7   0.150000  2.642359e+01  1.632325e+01  2.969005e+01  # NI2 rcc1
    105       1    8   0.002500  2.520315e+01  1.576073e+01  2.912063e+01  # CT2 rcc1
    106       1    9  -0.120000  2.456094e+01  1.672924e+01  2.810580e+01  # CT3 rcc1
    107       1   10   0.140000  2.327859e+01  1.616563e+01  2.747851e+01  # CT4 rcc1
    108       1   11  -0.400000  2.276613e+01  1.713343e+01  2.656527e+01  # OY rcc1
    109       1   12   0.085000  2.159712e+01  1.686543e+01  2.587938e+01  # CA2 rcc1
    110       1   13  -0.115000  2.085820e+01  1.568042e+01  2.600269e+01  # CA rcc1
    111       1   13  -0.115000  1.968758e+01  1.550241e+01  2.526914e+01  # CA rcc1
    112       1   13  -0.115000  1.923066e+01  1.650400e+01  2.440163e+01  # CA rcc1
    113       1   14   0.475000  1.794374e+01  1.636659e+01  2.355303e+01  # CT5 rcc1
    114       1   15  -0.630000  1.678923e+01  1.574730e+01  2.420108e+01  # NT rcc1
    115       1   16   0.003700  1.686126e+01  1.430355e+01  2.398041e+01  # CT6 rcc1
    116       1   16   0.003700  1.786584e+01  1.415625e+01  2.284603e+01  # CT6 rcc1
    117       1   15  -0.630000  1.806370e+01  1.551942e+01  2.236771e+01  # NT rcc1
    118       1   13  -0.115000  1.997521e+01  1.768143e+01  2.427987e+01  # CA rcc1
    119       1   13  -0.115000  2.114585e+01  1.785843e+01  2.501271e+01  # CA rcc1
    120       1   17   0.190000  2.771862e+01  1.597687e+01  2.935085e+01  # CR rcc1
    121       1    3   0.057500  2.468696e+00  3.615445e+00  3.023423e+01  # CT7 rcc1
    122       1    4   0.150000  3.150411e+00  4.856694e+00  2.990851e+01  # NI1 rcc1
    123       1    5  -0.130000  3.046747e+00  6.056387e+00  3.059729e+01  # CI1 rcc1
    124       1    6  -0.130000  3.832811e+00  7.003212e+00  2.994489e+01  # CI2 rcc1
    125       1    7   0.150000  4.408460e+00  6.388390e+00  2.884009e+01  # NI2 rcc1
    126       1    8   0.002500  5.311538e+00  7.011142e+00  2.787745e+01  # CT2 rcc1
    127       1    9  -0.120000  6.725671e+00  7.185298e+00  2.846878e+01  # CT3 rcc1
    128       1   10   0.140000  7.706648e+00  7.830646e+00  2.748043e+01  # CT4 rcc1
    129       1   11  -0.400000  8.975435e+00  7.941922e+00  2.812143e+01  # OY rcc1
    130       1   12   0.085000  1.003595e+01  8.499085e+00  2.743356e+01  # CA2 rcc1
    131       1   13  -0.115000  9.965089e+00  8.979549e+00  2.611841e+01  # CA rcc1
    132       1   13  -0.115000  1.109151e+01  9.526496e+00  2.550804e+01  # CA rcc1
    133       1   13  -0.115000  1.231001e+01  9.601843e+00  2.619716e+01  # CA rcc1
    134       1   14   0.475000  1.359611e+01  1.020724e+01  2.558073e+01  # CT5 rcc1
    135       1   15  -0.630000  1.357146e+01  1.165328e+01  2.537179e+01  # NT rcc1
    136       1   16   0.003700  1.294343e+01  1.185733e+01  2.407167e+01  # CT6 rcc1
    137       1   16   0.003700  1.330880e+01  1.060440e+01  2.327644e+01  # CT6 rcc1
    138       1   15  -0.630000  1.397498e+01  9.736116e+00  2.424740e+01  # NT rcc1
    139       1   13  -0.115000  1.237254e+01  9.122716e+00  2.750948e+01  # CA rcc1
    140       1   13  -0.115000  1.124605e+01  8.576651e+00  2.811904e+01  # CA rcc1
    141       1   17   0.190000  3.979315e+00  5.073917e+00  2.882602e+01  # CR rcc1
    142       1    3   0.057500  2.933513e+01  2.068151e+00  1.411283e+01  # CT7 rcc1
    143       1    4   0.150000  2.871291e+01  3.339380e+00  1.444222e+01  # NI1 rcc1
    144       1    5  -0.130000  2.872623e+01  4.487148e+00  1.366306e+01  # CI1 rcc1
    145       1    6  -0.130000  2.804478e+01  5.488827e+00  1.435042e+01  # CI2 rcc1
    146       1    7   0.150000  2.762579e+01  4.960400e+00  1.556502e+01  # NI2 rcc1
    147       1    8   0.002500  2.687034e+01  5.661802e+00  1.659825e+01  # CT2 rcc1
    148       1    9  -0.120000  2.538915e+01  5.821044e+00  1.619752e+01  # CT3 rcc1
    149       1   10   0.140000  2.455856e+01  6.537011e+00  1.727131e+01  # CT4 rcc1
    150       1   11  -0.400000  2.321328e+01  6.628529e+00  1.680721e+01  # OY rcc1
    151       1   12   0.085000  2.225740e+01  7.217485e+00  1.761225e+01  # CA2 rcc1
    152       1   13  -0.115000  2.251375e+01  7.762814e+00  1.887899e+01  # CA rcc1
    153       1   13  -0.115000  2.148066e+01  8.333274e+00  1.961854e+01  # CA rcc1
    154       1   13  -0.115000  2.017877e+01  8.367032e+00  1.910565e+01  # CA rcc1
    155       1   14   0.475000  1.902317e+01  8.994896e+00  1.990245e+01  # CT5 rcc1
    156       1   15  -0.630000  1.910026e+01  1.044919e+01  2.010996e+01  # NT rcc1
    157       1   16   0.003700  1.941757e+01  1.065844e+01  2.151604e+01  # CT6 rcc1
    158       1   16   0.003700  1.871201e+01  9.501517e+00  2.219241e+01  # CT6 rcc1
    159       1   15  -0.630000  1.893569e+01  8.418954e+00  2.124849e+01  # NT rcc1
    160       1   13  -0.115000  1.992530e+01  7.826878e+00  1.784227e+01  # CA rcc1
    161       1   13  -0.115000  2.095971e+01  7.257157e+00  1.710420e+01  # CA rcc1
    162       1   17   0.190000  2.804494e+01  3.643460e+00  1.561146e+01  # CR rcc1
    163       1   18   0.060000  1.416087e+01  1.729089e+01  2.018539e+01  # HC rcc1
    164       1   18   0.060000  1.439902e+01  1.566882e+01  2.075575e+01  # HC rcc1
    165       1   19   0.159400  1.298502e+01  1.380850e+01  1.931013e+01  # HA rcc1
    166       1   18   0.060000  1.176638e+01  1.247650e+01  1.692838e+01  # HC rcc1
    167       1   18   0.060000  1.312925e+01  1.229955e+01  1.585998e+01  # HC rcc1
    168       1   19   0.159400  1.357042e+01  1.450364e+01  1.513235e+01  # HA rcc1
    169       1   18   0.060000  1.398816e+01  1.676082e+01  1.433783e+01  # HC rcc1
    170       1   18   0.060000  1.413891e+01  1.811259e+01  1.543953e+01  # HC rcc1
    171       1   19   0.159400  1.416235e+01  1.769484e+01  1.793180e+01  # HA rcc1
    172       1   18   0.060000  1.167420e+01  1.796899e+01  2.472237e+01  # HC rcc1
    173       1   18   0.060000  1.051796e+01  1.667045e+01  2.492471e+01  # HC rcc1
    174       1   19   0.159400  1.410951e+01  1.754350e+01  2.489478e+01  # HA rcc1
    175       1   18   0.060000  1.643922e+01  1.727771e+01  2.559358e+01  # HC rcc1
    176       1   18   0.060000  1.702314e+01  1.577104e+01  2.630266e+01  # HC rcc1
    177       1   19   0.159400  1.543346e+01  1.382964e+01  2.655408e+01  # HA rcc1
    178       1   18   0.060000  1.359954e+01  1.222890e+01  2.739176e+01  # HC rcc1
    179       1   18   0.060000  1.201439e+01  1.232118e+01  2.663424e+01  # HC rcc1
    180       1   19   0.159400  1.130560e+01  1.437730e+01  2.556553e+01  # HA rcc1
    181       1   18   0.060000  1.637277e+01  1.394339e+01  1.669334e+01  # HC rcc1
    182       1   18   0.060000  1.614557e+01  1.547480e+01  1.751110e+01  # HC rcc1
    183       1   19   0.159400  1.821079e+01  1.245475e+01  1.729400e+01  # HA rcc1
    184       1   18   0.060000  1.970912e+01  1.085380e+01  1.814505e+01  # HC rcc1
    185       1   18   0.060000  2.091347e+01  1.125408e+01  1.935389e+01  # HC rcc1
    186       1   19   0.159400  2.029558e+01  1.328625e+01  2.094897e+01  # HA rcc1
    187       1   18   0.060000  2.013781e+01  1.548327e+01  2.197810e+01  # HC rcc1
    188       1   18   0.060000  1.924899e+01  1.678065e+01  2.118202e+01  # HC rcc1
    189       1   19   0.159400  1.768163e+01  1.622421e+01  1.926603e+01  # HA rcc1
    190       1   18   0.060000  1.432339e+01  7.643177e+00  1.810638e+01  # HC rcc1
    191       1   18   0.060000  1.281899e+01  7.831371e+00  1.900734e+01  # HC rcc1
    192       1   19   0.159400  1.286892e+01  8.293448e+00  2.146898e+01  # HA rcc1
    193       1   18   0.060000  1.286848e+01  7.959733e+00  2.396348e+01  # HC rcc1
    194       1   18   0.060000  1.439660e+01  7.764464e+00  2.481376e+01  # HC rcc1
    195       1   19   0.159400  1.652534e+01  7.602008e+00  2.358890e+01  # HA rcc1
    196       1   18   0.060000  1.845762e+01  6.735003e+00  2.237955e+01  # HC rcc1
    197       1   18   0.060000  1.841908e+01  6.473090e+00  2.064816e+01  # HC rcc1
    198       1   19   0.159400  1.644378e+01  7.368347e+00  1.930913e+01  # HA rcc1
    199       1   18   0.060000  1.373046e+01  3.076908e+01  2.379492e+01  # HC rcc1
    200       1   18   0.060000  1.487941e+01  3.142547e+01  2.260189e+01  # HC rcc1
    201       1   18   0.060000  1.546176e+01  3.040347e+01  2.393133e+01  # HC rcc1
    202       1   19   0.159400  1.579978e+01  2.983158e+01  2.078024e+01  # HA rcc1
    203       1   19   0.159400  1.487492e+01  2.733535e+01  1.982884e+01  # HA rcc1
    204       1   18   0.060000  1.214871e+01  2.616428e+01  2.223666e+01  # HC rcc1
    205       1   18   0.060000  1.257899e+01  2.604996e+01  2.055266e+01  # HC rcc1
    206       1   18   0.060000  1.476471e+01  2.491874e+01  2.118998e+01  # HC rcc1
    207       1   18   0.060000  1.434341e+01  2.506211e+01  2.288125e+01  # HC rcc1
    208       1   18   0.060000  1.278332e+01  2.344026e+01  2.081140e+01  # HC rcc1
    209       1   18   0.060000  1.236058e+01  2.358388e+01  2.252363e+01  # HC rcc1
    210       1   19   0.159400  1.161628e+01  2.154126e+01  2.160718e+01  # HA rcc1
    211       1   19   0.159400  1.104425e+01  1.916773e+01  2.169086e+01  # HA rcc1
    212       1   18   0.060000  1.351118e+01  1.649312e+01  2.275452e+01  # HC rcc1
    213       1   18   0.060000  1.255999e+01  1.440691e+01  2.152208e+01  # HC rcc1
    214       1   18   0.060000  1.119941e+01  1.479827e+01  2.050075e+01  # HC rcc1
    215       1   18   0.060000  9.924927e+00  1.549692e+01  2.229287e+01  # HC rcc1
    216       1   18   0.060000  1.111840e+01  1.462526e+01  2.327863e+01  # HC rcc1
    217       1   19   0.159400  1.509010e+01  1.821208e+01  2.276707e+01  # HA rcc1
    218       1   19   0.159400  1.567231e+01  2.059993e+01  2.268673e+01  # HA rcc1
    219       1   19   0.159400  1.299277e+01  2.823042e+01  2.354689e+01  # HA rcc1
    220       1   18   0.060000  2.143953e+01  1.333894e+01  2.333137e+00  # HC rcc1
    221       1   18   0.060000  2.313250e+01  1.381604e+01  2.097895e+00  # HC rcc1
    222       1   18   0.060000  2.183006e+01  1.490083e+01  1.570167e+00  # HC rcc1
    223       1   19   0.159400  2.264590e+01  1.683709e+01  3.087712e+00  # HA rcc1
    224       1   19   0.159400  2.241989e+01  1.725402e+01  5.874477e+00  # HA rcc1
    225       1   18   0.060000  2.179707e+01  1.383980e+01  7.471932e+00  # HC rcc1
    226       1   18   0.060000  2.254071e+01  1.537099e+01  7.841486e+00  # HC rcc1