created by fftool

15 atoms
14 bonds
25 angles
24 dihedrals
5 atom types
4 bond types
7 angle types
4 dihedral types
0.000000 8.000000 xlo xhi
0.000000 8.000000 ylo yhi
0.000000 8.000000 zlo zhi

Masses

   1   12.011  # CBT
   2   32.066  # SBT
   3   15.999  # OBT
   4   18.998  # F1
   5   14.000  # NBT

Bond Coeffs

   1   233.030593     1.818000  # CF-SB
   2   441.921606     1.323000  # FB-CF
   3   374.880497     1.570000  # NB-SB
   4   637.069790     1.437000  # SB-OB

Angle Coeffs

   1    82.934990   111.700000  # FB-CF-SB
   2    93.331740   107.100000  # FB-CF-FB
   3    91.300191   103.500000  # NB-SB-CF
   4   103.967495   102.600000  # CF-SB-OB
   5    94.287763   113.600000  # NB-SB-OB
   6   115.798279   118.500000  # OB-SB-OB
   7    80.186424   125.600000  # SB-NB-SB

Dihedral Coeffs

   1     0.000000     0.000000     0.315966     0.000000  # NB-SB-CF-FB
   2     0.000000     0.000000     0.346797     0.000000  # OB-SB-CF-FB
   3     7.832935    -2.490440    -0.763623     0.000000  # SB-NB-SB-CF
   4     0.000000     0.000000    -0.003585     0.000000  # OB-SB-NB-SB

Atoms

      1       1    1   0.350000  5.564055e+00  4.012564e+00  2.359918e+00  # CBT tf2n
      2       1    2   1.020000  5.211401e+00  2.282134e+00  3.146260e+00  # SBT tf2n
      3       1    3  -0.530000  3.165300e+00  2.158734e+00  6.459941e+00  # OBT tf2n
      4       1    4  -0.160000  4.471909e+00  4.483089e+00  1.716888e+00  # F1 tf2n
      5       1    4  -0.160000  5.938025e+00  4.921576e+00  3.278916e+00  # F1 tf2n
      6       1    4  -0.160000  6.565256e+00  3.899340e+00  1.451233e+00  # F1 tf2n
      7       1    5  -0.660000  3.891999e+00  2.483818e+00  4.054360e+00  # NBT tf2n
      8       1    2   1.020000  3.893866e+00  3.066226e+00  5.568910e+00  # SBT tf2n
      9       1    3  -0.530000  4.819662e+00  1.480812e+00  1.984418e+00  # OBT tf2n
     10       1    3  -0.530000  6.450528e+00  1.956180e+00  3.855708e+00  # OBT tf2n
     11       1    3  -0.530000  5.118364e+00  3.706965e+00  6.056583e+00  # OBT tf2n
     12       1    1   0.350000  2.657198e+00  4.525413e+00  5.329041e+00  # CBT tf2n
     13       1    4  -0.160000  1.456665e+00  4.099407e+00  4.883326e+00  # F1 tf2n
     14       1    4  -0.160000  2.463706e+00  5.146751e+00  6.518470e+00  # F1 tf2n
     15       1    4  -0.160000  3.132910e+00  5.437458e+00  4.455971e+00  # F1 tf2n

Bonds

      1    1       1       2  # CF-SB
      2    2       1       4  # FB-CF
      3    2       1       5  # FB-CF
      4    2       1       6  # FB-CF
      5    3       2       7  # NB-SB
      6    4       2       9  # SB-OB
      7    4       2      10  # SB-OB
      8    4       3       8  # SB-OB
      9    3       7       8  # NB-SB
     10    4       8      11  # SB-OB
     11    1       8      12  # CF-SB
     12    2      12      13  # FB-CF
     13    2      12      14  # FB-CF
     14    2      12      15  # FB-CF

Angles

      1    1       2       1       4  # FB-CF-SB
      2    1       2       1       5  # FB-CF-SB
      3    1       2       1       6  # FB-CF-SB
      4    2       4       1       5  # FB-CF-FB
      5    2       4       1       6  # FB-CF-FB
      6    2       5       1       6  # FB-CF-FB
      7    3       1       2       7  # NB-SB-CF
      8    4       1       2       9  # CF-SB-OB
      9    4       1       2      10  # CF-SB-OB
     10    5       7       2       9  # NB-SB-OB
     11    5       7       2      10  # NB-SB-OB
     12    6       9       2      10  # OB-SB-OB
     13    7       2       7       8  # SB-NB-SB
     14    5       3       8       7  # NB-SB-OB
     15    6       3       8      11  # OB-SB-OB
     16    4       3       8      12  # CF-SB-OB
     17    5       7       8      11  # NB-SB-OB
     18    3       7       8      12  # NB-SB-CF
     19    4      11       8      12  # CF-SB-OB
     20    1       8      12      13  # FB-CF-SB
     21    1       8      12      14  # FB-CF-SB
     22    1       8      12      15  # FB-CF-SB
     23    2      13      12      14  # FB-CF-FB
     24    2      13      12      15  # FB-CF-FB
     25    2      14      12      15  # FB-CF-FB

Dihedrals

      1    1       4       1       2       7  # NB-SB-CF-FB
      2    2       4       1       2       9  # OB-SB-CF-FB
      3    2       4       1       2      10  # OB-SB-CF-FB
      4    1       5       1       2       7  # NB-SB-CF-FB
      5    2       5       1       2       9  # OB-SB-CF-FB
      6    2       5       1       2      10  # OB-SB-CF-FB
      7    1       6       1       2       7  # NB-SB-CF-FB
      8    2       6       1       2       9  # OB-SB-CF-FB
      9    2       6       1       2      10  # OB-SB-CF-FB
     10    3       1       2       7       8  # SB-NB-SB-CF
     11    4       9       2       7       8  # OB-SB-NB-SB
     12    4      10       2       7       8  # OB-SB-NB-SB
     13    4       2       7       8       3  # OB-SB-NB-SB
     14    4       2       7       8      11  # OB-SB-NB-SB
     15    3       2       7       8      12  # SB-NB-SB-CF
     16    2       3       8      12      13  # OB-SB-CF-FB
     17    2       3       8      12      14  # OB-SB-CF-FB
     18    2       3       8      12      15  # OB-SB-CF-FB
     19    1       7       8      12      13  # NB-SB-CF-FB
     20    1       7       8      12      14  # NB-SB-CF-FB
     21    1       7       8      12      15  # NB-SB-CF-FB
     22    2      11       8      12      13  # OB-SB-CF-FB
     23    2      11       8      12      14  # OB-SB-CF-FB
     24    2      11       8      12      15  # OB-SB-CF-FB
