LAMMPS Description

     19872  atoms
     20736  bonds
     36576  angles
     56736  dihedrals
     0  impropers

     24  atom types
     36  bond types
     61  angle types
     88  dihedral types
     0  improper types

  0.0 75.00 xlo xhi
  0.0 75.00 ylo yhi
  0.0 75.00 zlo zhi

Masses

1 12.011  # CT1
2 12.011  # CA1
3 12.011  # CT7
4 14.007  # NI1
5 12.011  # CI1
6 12.011  # CI2
7 14.007  # NI2
8 12.011  # CT2
9 12.011  # CT3
10 12.011  # CT4
11 15.999  # OY
12 12.011  # CA2
13 12.011  # CA
14 12.011  # CT5
15 14.007  # NT
16 12.011  # CT6
17 12.011  # CR
18 1.008  # HC
19 1.008  # HA
20 12.011  # CBT
21 32.066  # SBT
22 15.999  # OBT
23 18.998  # F1
24 14.000  # NBT

Atoms  # full

1 1 1 0.205000 13.68779 16.30841 20.22788
2 1 2 -0.141750 13.55332 15.81803 18.78486
3 1 2 -0.141750 13.21294 14.49056 18.50449
4 1 2 -0.141750 13.23019 14.0025 17.19256
5 1 1 0.205000 12.85418 12.55171 16.88612
6 1 2 -0.141750 13.54697 14.87372 16.1481
7 1 2 -0.141750 13.89598 16.20382 16.40602
8 1 1 0.205000 14.44474 17.07749 15.27691
9 1 2 -0.141750 13.87283 16.6742 17.7248
10 1 1 0.205000 11.49789 16.91304 24.50985
11 1 2 -0.141750 12.57143 16.08375 25.22498
12 1 2 -0.141750 13.88133 16.56763 25.29736
13 1 2 -0.141750 14.92009 15.76796 25.77783
14 1 1 0.205000 16.36765 16.19 25.53744
15 1 2 -0.141750 14.62951 14.48069 26.24008
16 1 2 -0.141750 13.32712 13.97704 26.17942
17 1 1 0.205000 13.07925 12.49843 26.47097
18 1 2 -0.141750 12.30294 14.7821 25.66573
19 1 1 0.205000 16.89181 14.8343 17.05024
20 1 2 -0.141750 17.86927 14.39998 18.13937
21 1 2 -0.141750 18.46292 13.13381 18.09662
22 1 2 -0.141750 19.33775 12.72 19.10878
23 1 1 0.205000 19.84285 11.27699 19.14229
24 1 2 -0.141750 19.6447 13.6058 20.14788
25 1 2 -0.141750 19.05689 14.87349 20.20687
26 1 1 0.205000 19.20529 15.72766 21.46551
27 1 2 -0.141750 18.17364 15.26402 19.19678
28 1 1 0.205000 13.85913 8.157126 18.94979
29 1 2 -0.141750 14.56459 7.800221 20.25292
30 1 2 -0.141750 13.90883 7.998302 21.47093
31 1 2 -0.141750 14.60137 7.905609 22.68197
32 1 1 0.205000 13.90869 8.288997 23.9901
33 1 2 -0.141750 15.97058 7.616693 22.66092
34 1 2 -0.141750 16.63753 7.388074 21.44982
35 1 1 0.205000 18.1542 7.184512 21.43247
36 1 2 -0.141750 15.92608 7.484542 20.25057
37 1 3 0.057500 14.64238 30.56856 23.23244
38 1 4 0.150000 14.47341 29.38015 22.41346
39 1 5 -0.130000 15.09258 29.12415 21.19868
40 1 6 -0.130000 14.63791 27.89454 20.72793
41 1 7 0.150000 13.72201 27.40024 21.64819
42 1 8 0.002500 13.00096 26.13461 21.55546
43 1 9 -0.120000 13.92144 24.94046 21.8821
44 1 10 0.140000 13.19013 23.59284 21.81326
45 1 11 -0.400000 14.1228 22.56147 22.12943
46 1 12 0.085000 13.69823 21.24679 22.14875
47 1 13 -0.115000 12.38793 20.83259 21.86624
48 1 13 -0.115000 12.0544 19.48107 21.91349
49 1 13 -0.115000 13.02046 18.52595 22.2483
50 1 14 0.475000 12.67416 17.02982 22.29841
51 1 15 -0.630000 12.42607 16.45622 20.97656
52 1 16 0.003700 11.81196 15.17686 21.32016
53 1 16 0.003700 10.97794 15.44248 22.57219
54 1 15 -0.630000 11.4473 16.74118 23.04272
55 1 13 -0.115000 14.32805 18.93864 22.51963
56 1 13 -0.115000 14.65986 20.29021 22.47205
57 1 17 0.190000 13.62634 28.32174 22.67474
58 1 3 0.057500 22.13224 14.18049 2.330265
59 1 4 0.150000 22.15287 14.81568 3.637062
60 1 5 -0.130000 22.40815 16.1544 3.89602
61 1 6 -0.130000 22.29679 16.36214 5.268762
62 1 7 0.150000 21.96169 15.14844 5.855878
63 1 8 0.002500 21.72776 14.9114 7.276898
64 1 9 -0.120000 20.35531 15.46125 7.717131
65 1 10 0.140000 20.07203 15.22722 9.207292
66 1 11 -0.400000 18.79115 15.77704 9.507683
67 1 12 0.085000 18.32032 15.72964 10.80564
68 1 13 -0.115000 19.00548 15.1418 11.878
69 1 13 -0.115000 18.4494 15.1491 13.15536
70 1 13 -0.115000 17.20707 15.75479 13.39406
71 1 14 0.475000 16.55897 15.74581 14.79901
72 1 15 -0.630000 15.91117 17.0321 15.10664
73 1 16 0.003700 16.71932 17.73208 16.09853
74 1 16 0.003700 17.96857 16.86144 16.19848
75 1 15 -0.630000 17.51672 15.50447 15.89362
76 1 13 -0.115000 16.51946 16.31749 12.31072
77 1 13 -0.115000 17.07475 16.30951 11.03379
78 1 17 0.190000 21.86617 14.21047 4.844391
79 1 3 0.057500 12.41785 2.989217 6.139981
80 1 4 0.150000 12.7132 4.236855 6.823984
81 1 5 -0.130000 12.50168 5.515424 6.329018
82 1 6 -0.130000 12.94564 6.430602 7.28066
83 1 7 0.150000 13.44879 5.71204 8.358055
84 1 8 0.002500 14.01443 6.271616 9.581644
85 1 9 -0.120000 12.91017 6.821426 10.50803
86 1 10 0.140000 13.46659 7.400812 11.8159
87 1 11 -0.400000 12.36984 7.874648 12.59405
88 1 12 0.085000 12.60916 8.428406 13.83683
89 1 13 -0.115000 13.88077 8.579689 14.40763
90 1 13 -0.115000 14.02086 9.149013 15.67136
91 1 13 -0.115000 12.89531 9.57495 16.39002
92 1 14 0.475000 12.97952 10.21997 17.79514
93 1 15 -0.630000 13.45248 11.60023 17.8294
94 1 16 0.003700 14.90916 11.52084 17.8159
95 1 16 0.003700 15.21459 10.23101 18.57529
96 1 15 -0.630000 13.90106 9.609796 18.74712
97 1 13 -0.115000 11.63078 9.425763 15.81198
98 1 13 -0.115000 11.49138 8.857493 14.5486
99 1 17 0.190000 13.30465 4.368468 8.064518
100 1 3 0.057500 30.05027 16.68891 30.02013
101 1 4 0.150000 28.59991 16.73088 30.09955
102 1 5 -0.130000 27.84475 17.5758 30.89991
103 1 6 -0.130000 26.49762 17.32173 30.65313
104 1 7 0.150000 26.42359 16.32325 29.69005
105 1 8 0.002500 25.20315 15.76073 29.12063
106 1 9 -0.120000 24.56094 16.72924 28.1058
107 1 10 0.140000 23.27859 16.16563 27.47851
108 1 11 -0.400000 22.76613 17.13343 26.56527
109 1 12 0.085000 21.59712 16.86543 25.87938
110 1 13 -0.115000 20.8582 15.68042 26.00269
111 1 13 -0.115000 19.68758 15.50241 25.26914
112 1 13 -0.115000 19.23066 16.504 24.40163
113 1 14 0.475000 17.94374 16.36659 23.55303
114 1 15 -0.630000 16.78923 15.7473 24.20108
115 1 16 0.003700 16.86126 14.30355 23.98041
116 1 16 0.003700 17.86584 14.15625 22.84603
117 1 15 -0.630000 18.0637 15.51942 22.36771
118 1 13 -0.115000 19.97521 17.68143 24.27987
119 1 13 -0.115000 21.14585 17.85843 25.01271
120 1 17 0.190000 27.71862 15.97687 29.35085
121 1 3 0.057500 2.468696 3.615445 30.23423
122 1 4 0.150000 3.150411 4.856694 29.90851
123 1 5 -0.130000 3.046747 6.056387 30.59729
124 1 6 -0.130000 3.832811 7.003212 29.94489
125 1 7 0.150000 4.40846 6.38839 28.84009
126 1 8 0.002500 5.311538 7.011142 27.87745
127 1 9 -0.120000 6.725671 7.185298 28.46878
128 1 10 0.140000 7.706648 7.830646 27.48043
129 1 11 -0.400000 8.975435 7.941922 28.12143
130 1 12 0.085000 10.03595 8.499085 27.43356
131 1 13 -0.115000 9.965089 8.979549 26.11841
132 1 13 -0.115000 11.09151 9.526496 25.50804
133 1 13 -0.115000 12.31001 9.601843 26.19716
134 1 14 0.475000 13.59611 10.20724 25.58073
135 1 15 -0.630000 13.57146 11.65328 25.37179
136 1 16 0.003700 12.94343 11.85733 24.07167
137 1 16 0.003700 13.3088 10.6044 23.27644
138 1 15 -0.630000 13.97498 9.736116 24.2474
139 1 13 -0.115000 12.37254 9.122716 27.50948
140 1 13 -0.115000 11.24605 8.576651 28.11904
141 1 17 0.190000 3.979315 5.073917 28.82602
142 1 3 0.057500 29.33513 2.068151 14.11283
143 1 4 0.150000 28.71291 3.33938 14.44222
144 1 5 -0.130000 28.72623 4.487148 13.66306
145 1 6 -0.130000 28.04478 5.488827 14.35042
146 1 7 0.150000 27.62579 4.9604 15.56502
147 1 8 0.002500 26.87034 5.661802 16.59825
148 1 9 -0.120000 25.38915 5.821044 16.19752
149 1 10 0.140000 24.55856 6.537011 17.27131
150 1 11 -0.400000 23.21328 6.628529 16.80721
151 1 12 0.085000 22.2574 7.217485 17.61225
152 1 13 -0.115000 22.51375 7.762814 18.87899
153 1 13 -0.115000 21.48066 8.333274 19.61854
154 1 13 -0.115000 20.17877 8.367032 19.10565
155 1 14 0.475000 19.02317 8.994896 19.90245
156 1 15 -0.630000 19.10026 10.44919 20.10996
157 1 16 0.003700 19.41757 10.65844 21.51604
158 1 16 0.003700 18.71201 9.501517 22.19241
159 1 15 -0.630000 18.93569 8.418954 21.24849
160 1 13 -0.115000 19.9253 7.826878 17.84227
161 1 13 -0.115000 20.95971 7.257157 17.1042
162 1 17 0.190000 28.04494 3.64346 15.61146
163 1 18 0.060000 14.16087 17.29089 20.18539
164 1 18 0.060000 14.39902 15.66882 20.75575
165 1 19 0.159400 12.98502 13.8085 19.31013
166 1 18 0.060000 11.76638 12.4765 16.92838
167 1 18 0.060000 13.12925 12.29955 15.85998
168 1 19 0.159400 13.57042 14.50364 15.13235
169 1 18 0.060000 13.98816 16.76082 14.33783
170 1 18 0.060000 14.13891 18.11259 15.43953
171 1 19 0.159400 14.16235 17.69484 17.9318
172 1 18 0.060000 11.6742 17.96899 24.72237
173 1 18 0.060000 10.51796 16.67045 24.92471
174 1 19 0.159400 14.10951 17.5435 24.89478
175 1 18 0.060000 16.43922 17.27771 25.59358
176 1 18 0.060000 17.02314 15.77104 26.30266
177 1 19 0.159400 15.43346 13.82964 26.55408
178 1 18 0.060000 13.59954 12.2289 27.39176
179 1 18 0.060000 12.01439 12.32118 26.63424
180 1 19 0.159400 11.3056 14.3773 25.56553
181 1 18 0.060000 16.37277 13.94339 16.69334
182 1 18 0.060000 16.14557 15.4748 17.5111
183 1 19 0.159400 18.21079 12.45475 17.294
184 1 18 0.060000 19.70912 10.8538 18.14505
185 1 18 0.060000 20.91347 11.25408 19.35389
186 1 19 0.159400 20.29558 13.28625 20.94897
187 1 18 0.060000 20.13781 15.48327 21.9781
188 1 18 0.060000 19.24899 16.78065 21.18202
189 1 19 0.159400 17.68163 16.22421 19.26603
190 1 18 0.060000 14.32339 7.643177 18.10638
191 1 18 0.060000 12.81899 7.831371 19.00734
192 1 19 0.159400 12.86892 8.293448 21.46898
193 1 18 0.060000 12.86848 7.959733 23.96348
194 1 18 0.060000 14.3966 7.764464 24.81376
195 1 19 0.159400 16.52534 7.602008 23.5889
196 1 18 0.060000 18.45762 6.735003 22.37955
197 1 18 0.060000 18.41908 6.47309 20.64816
198 1 19 0.159400 16.44378 7.368347 19.30913
199 1 18 0.060000 13.73046 30.76908 23.79492
200 1 18 0.060000 14.87941 31.42547 22.60189
201 1 18 0.060000 15.46176 30.40347 23.93133
202 1 19 0.159400 15.79978 29.83158 20.78024
203 1 19 0.159400 14.87492 27.33535 19.82884
204 1 18 0.060000 12.14871 26.16428 22.23666
205 1 18 0.060000 12.57899 26.04996 20.55266
206 1 18 0.060000 14.76471 24.91874 21.18998
207 1 18 0.060000 14.34341 25.06211 22.88125
208 1 18 0.060000 12.78332 23.44026 20.8114
209 1 18 0.060000 12.36058 23.58388 22.52363
210 1 19 0.159400 11.61628 21.54126 21.60718
211 1 19 0.159400 11.04425 19.16773 21.69086
212 1 18 0.060000 13.51118 16.49312 22.75452
213 1 18 0.060000 12.55999 14.40691 21.52208
214 1 18 0.060000 11.19941 14.79827 20.50075
215 1 18 0.060000 9.924927 15.49692 22.29287
216 1 18 0.060000 11.1184 14.62526 23.27863
217 1 19 0.159400 15.0901 18.21208 22.76707
218 1 19 0.159400 15.67231 20.59993 22.68673
219 1 19 0.159400 12.99277 28.23042 23.54689
220 1 18 0.060000 21.43953 13.33894 2.333137
221 1 18 0.060000 23.1325 13.81604 2.097895
222 1 18 0.060000 21.83006 14.90083 1.570167
223 1 19 0.159400 22.6459 16.83709 3.087712
224 1 19 0.159400 22.41989 17.25402 5.874477
225 1 18 0.060000 21.79707 13.8398 7.471932
226 1 18 0.060000 22.54071 15.37099 7.841486
227 1 18 0.060000 20.29957 16.53186 7.513484
228 1 18 0.060000 19.56411 14.99254 7.129313
229 1 18 0.060000 20.84328 15.71012 9.811319
230 1 18 0.060000 20.08533 14.15778 9.42795
231 1 19 0.159400 19.96764 14.67226 11.74112
232 1 19 0.159400 18.99533 14.68048 13.96156
233 1 18 0.060000 15.83101 14.9339 14.74671
234 1 18 0.060000 16.24989 17.80304 17.07907
235 1 18 0.060000 17.00031 18.73132 15.76357
236 1 18 0.060000 18.76637 17.16556 15.51858
237 1 18 0.060000 18.41499 16.95244 17.18763
238 1 19 0.159400 15.54964 16.77033 12.45696
239 1 19 0.159400 16.53397 16.75755 10.21265
240 1 19 0.159400 21.60859 13.1677 4.97384
241 1 18 0.060000 11.39881 2.686902 6.379252
242 1 18 0.060000 13.10565 2.209741 6.467971
243 1 18 0.060000 12.50558 3.125088 5.062112
244 1 19 0.159400 12.05359 5.66174 5.352522
245 1 19 0.159400 12.95517 7.515587 7.286893
246 1 18 0.060000 14.59439 5.497684 10.08744
247 1 18 0.060000 14.72901 7.049564 9.30791
248 1 18 0.060000 12.34286 7.59801 9.992674
249 1 18 0.060000 12.20087 6.027331 10.74799
250 1 18 0.060000 14.15705 8.218496 11.59848
251 1 18 0.060000 14.01278 6.628478 12.36167
252 1 19 0.159400 14.77162 8.262106 13.88751
253 1 19 0.159400 15.01266 9.249236 16.07956
254 1 18 0.060000 11.97803 10.18678 18.23161
255 1 18 0.060000 15.36014 12.40042 18.27672
256 1 18 0.060000 15.29783 11.49731 16.79643
257 1 18 0.060000 15.91383 9.606224 18.01877
258 1 18 0.060000 15.66963 10.44374 19.544
259 1 19 0.159400 10.74684 9.751584 16.34204
260 1 19 0.159400 10.50698 8.74767 14.11684
261 1 19 0.159400 13.60302 3.547989 8.703412
262 1 18 0.060000 30.42451 15.97603 30.75429
263 1 18 0.060000 30.46432 17.67364 30.23656
264 1 18 0.060000 30.36236 16.37112 29.0253
265 1 19 0.159400 28.32754 18.27784 31.5705
266 1 19 0.159400 25.59474 17.75822 31.06752
267 1 18 0.060000 25.44207 14.80643 28.64817
268 1 18 0.060000 24.51753 15.52654 29.93665
269 1 18 0.060000 24.32679 17.67771 28.59178
270 1 18 0.060000 25.27292 16.95599 27.31037
271 1 18 0.060000 22.54441 15.95591 28.25936
272 1 18 0.060000 23.49781 15.23185 26.95625
273 1 19 0.159400 21.17486 14.88641 26.66167
274 1 19 0.159400 19.14335 14.58023 25.38864
275 1 18 0.060000 17.6509 17.3706 23.23601
276 1 18 0.060000 15.88667 13.91152 23.68547
277 1 18 0.060000 17.19072 13.74861 24.85944
278 1 18 0.060000 18.80537 13.715 23.18295
279 1 18 0.060000 17.51009 13.49937 22.05111
280 1 19 0.159400 19.64803 18.46654 23.61293
281 1 19 0.159400 21.70898 18.77459 24.90863
282 1 18 0.060000 2.294211 3.034481 29.32851
283 1 18 0.060000 1.517176 3.829166 30.721
284 1 18 0.060000 3.093623 3.03582 30.91288
285 1 19 0.159400 2.43091 6.130454 31.48675
286 1 19 0.159400 4.02837 8.048676 30.16003
287 1 18 0.060000 5.341781 6.398396 26.9747
288 1 18 0.060000 4.885687 7.969019 27.57417
289 1 18 0.060000 6.680684 7.798909 29.36998
290 1 18 0.060000 7.119807 6.214463 28.77431
291 1 18 0.060000 7.343165 8.817553 27.1863
292 1 18 0.060000 7.789597 7.215398 26.58189
293 1 19 0.159400 9.046238 8.937999 25.55373
294 1 19 0.159400 11.00029 9.885261 24.4964
295 1 18 0.060000 14.42157 9.97617 26.25879
296 1 18 0.060000 13.29864 12.77514 23.60081
297 1 18 0.060000 11.86266 11.97561 24.1639
298 1 18 0.060000 12.41418 10.15354 22.84601
299 1 18 0.060000 13.98315 10.8475 22.45374
300 1 19 0.159400 13.29783 9.173055 28.06587
301 1 19 0.159400 11.31118 8.210491 29.13349
302 1 19 0.159400 4.2502 4.330102 28.08854
303 1 18 0.060000 29.63351 1.549523 15.02403
304 1 18 0.060000 30.20897 2.232786 13.48252
305 1 18 0.060000 28.61723 1.451959 13.57245
306 1 19 0.159400 29.21195 4.490125 12.69366
307 1 19 0.159400 27.82733 6.519918 14.09176
308 1 18 0.060000 26.96084 5.110562 17.53581
309 1 18 0.060000 27.34202 6.629898 16.77423
310 1 18 0.060000 25.31288 6.379562 15.26325
311 1 18 0.060000 24.95048 4.839621 16.00865
312 1 18 0.060000 24.96403 7.534482 17.45376
313 1 18 0.060000 24.59882 5.975548 18.20721
314 1 19 0.159400 23.50467 7.752793 19.30672
315 1 19 0.159400 21.68635 8.748529 20.59452
316 1 18 0.060000 18.09757 8.821661 19.35269
317 1 18 0.060000 19.06752 11.62284 21.87961
318 1 18 0.060000 20.49415 10.65597 21.69678
319 1 18 0.060000 19.10201 9.267142 23.18355
320 1 18 0.060000 17.65273 9.716074 22.34143
321 1 19 0.159400 18.92684 7.846737 17.42889
322 1 19 0.159400 20.7541 6.840478 16.12873
323 1 19 0.159400 27.87572 2.956427 16.42985
324 1 19 0.159400 28.00068 15.23362 28.61715
325 2 20 0.350000 6.564055 5.012564 2.359918
326 2 21 1.020000 6.211401 3.282134 3.14626
327 2 22 -0.530000 4.1653 3.158734 6.459941
328 2 23 -0.160000 5.471909 5.483089 1.716888
329 2 23 -0.160000 6.938025 5.921576 3.278916
330 2 23 -0.160000 7.565256 4.8993400000000005 1.451233
331 2 24 -0.660000 4.891999 3.483818 4.05436
332 2 21 1.020000 4.893866 4.066226 5.56891
333 2 22 -0.530000 5.819662 2.4808120000000002 1.984418
334 2 22 -0.530000 7.450528 2.95618 3.855708
335 2 22 -0.530000 6.118364 4.706965 6.056583
336 2 20 0.350000 3.657198 5.525413 5.329041
337 2 23 -0.160000 2.456665 5.099407 4.883326
338 2 23 -0.160000 3.463706 6.146751 6.51847
339 2 23 -0.160000 4.13291 6.437458 4.455971
340 3 20 0.350000 6.564055 21.012564 2.359918
341 3 21 1.020000 6.211401 19.282134 3.14626
342 3 22 -0.530000 4.1653 19.158734 6.459941
343 3 23 -0.160000 5.471909 21.483089 1.716888
344 3 23 -0.160000 6.938025 21.921576 3.278916
345 3 23 -0.160000 7.565256 20.89934 1.451233
346 3 24 -0.660000 4.891999 19.483818 4.05436
347 3 21 1.020000 4.893866 20.066226 5.56891
348 3 22 -0.530000 5.819662 18.480812 1.984418
349 3 22 -0.530000 7.450528 18.95618 3.855708
350 3 22 -0.530000 6.118364 20.706965 6.056583
351 3 20 0.350000 3.657198 21.525413 5.329041
352 3 23 -0.160000 2.456665 21.099407 4.883326
353 3 23 -0.160000 3.463706 22.146751000000002 6.51847
354 3 23 -0.160000 4.13291 22.437458 4.455971
355 4 20 0.350000 23.564055 5.012564 2.359918
356 4 21 1.020000 23.211401000000002 3.282134 3.14626
357 4 22 -0.530000 21.1653 3.158734 6.459941
358 4 23 -0.160000 22.471909 5.483089 1.716888
359 4 23 -0.160000 23.938025 5.921576 3.278916
360 4 23 -0.160000 24.565255999999998 4.8993400000000005 1.451233
361 4 24 -0.660000 21.891999 3.483818 4.05436
362 4 21 1.020000 21.893866 4.066226 5.56891
363 4 22 -0.530000 22.819662 2.4808120000000002 1.984418
364 4 22 -0.530000 24.450528 2.95618 3.855708
365 4 22 -0.530000 23.118364 4.706965 6.056583
366 4 20 0.350000 20.657198 5.525413 5.329041
367 4 23 -0.160000 19.456665 5.099407 4.883326
368 4 23 -0.160000 20.463706000000002 6.146751 6.51847
369 4 23 -0.160000 21.13291 6.437458 4.455971
370 5 20 0.350000 23.564055 21.012564 2.359918
371 5 21 1.020000 23.211401000000002 19.282134 3.14626
372 5 22 -0.530000 21.1653 19.158734 6.459941
373 5 23 -0.160000 22.471909 21.483089 1.716888
374 5 23 -0.160000 23.938025 21.921576 3.278916
375 5 23 -0.160000 24.565255999999998 20.89934 1.451233
376 5 24 -0.660000 21.891999 19.483818 4.05436
377 5 21 1.020000 21.893866 20.066226 5.56891
378 5 22 -0.530000 22.819662 18.480812 1.984418
379 5 22 -0.530000 24.450528 18.95618 3.855708
380 5 22 -0.530000 23.118364 20.706965 6.056583
381 5 20 0.350000 20.657198 21.525413 5.329041
382 5 23 -0.160000 19.456665 21.099407 4.883326
383 5 23 -0.160000 20.463706000000002 22.146751000000002 6.51847
384 5 23 -0.160000 21.13291 22.437458 4.455971
385 6 20 0.350000 6.564055 5.012564 12.359918
386 6 21 1.020000 6.211401 3.282134 13.14626
387 6 22 -0.530000 4.1653 3.158734 16.459941
388 6 23 -0.160000 5.471909 5.483089 11.716888
389 6 23 -0.160000 6.938025 5.921576 13.278916
390 6 23 -0.160000 7.565256 4.8993400000000005 11.451233
391 6 24 -0.660000 4.891999 3.483818 14.054359999999999
392 6 21 1.020000 4.893866 4.066226 15.568909999999999
393 6 22 -0.530000 5.819662 2.4808120000000002 11.984418
394 6 22 -0.530000 7.450528 2.95618 13.855708
395 6 22 -0.530000 6.118364 4.706965 16.056583
396 6 20 0.350000 3.657198 5.525413 15.329041
397 6 23 -0.160000 2.456665 5.099407 14.883326
398 6 23 -0.160000 3.463706 6.146751 16.51847
399 6 23 -0.160000 4.13291 6.437458 14.455971
400 7 20 0.350000 24.564055 23.012564 17.359918
401 7 21 1.020000 24.211401000000002 21.282134 18.146259999999998
402 7 22 -0.530000 22.1653 21.158734 21.459941
403 7 23 -0.160000 23.471909 23.483089 16.716888
404 7 23 -0.160000 24.938025 23.921576 18.278916
405 7 23 -0.160000 25.565255999999998 22.89934 16.451233
406 7 24 -0.660000 22.891999 21.483818 19.05436
407 7 21 1.020000 22.893866 22.066226 20.56891
408 7 22 -0.530000 23.819662 20.480812 16.984418
409 7 22 -0.530000 25.450528 20.95618 18.855708
410 7 22 -0.530000 24.118364 22.706965 21.056583
411 7 20 0.350000 21.657198 23.525413 20.329041
412 7 23 -0.160000 20.456665 23.099407 19.883326
413 7 23 -0.160000 21.463706000000002 24.146751000000002 21.51847
414 7 23 -0.160000 22.13291 24.437458 19.455970999999998
415 8 1 0.205000 13.68779 16.30841 45.22788
416 8 2 -0.141750 13.55332 15.81803 43.784859999999995
417 8 2 -0.141750 13.21294 14.49056 43.504490000000004
418 8 2 -0.141750 13.23019 14.0025 42.19256
419 8 1 0.205000 12.85418 12.55171 41.88612
420 8 2 -0.141750 13.54697 14.87372 41.1481
421 8 2 -0.141750 13.89598 16.20382 41.40602
422 8 1 0.205000 14.44474 17.07749 40.27691
423 8 2 -0.141750 13.87283 16.6742 42.7248
424 8 1 0.205000 11.49789 16.91304 49.50985
425 8 2 -0.141750 12.57143 16.08375 50.22498
426 8 2 -0.141750 13.88133 16.56763 50.29736
427 8 2 -0.141750 14.92009 15.76796 50.77783
428 8 1 0.205000 16.36765 16.19 50.537440000000004
429 8 2 -0.141750 14.62951 14.48069 51.24008
430 8 2 -0.141750 13.32712 13.97704 51.17942
431 8 1 0.205000 13.07925 12.49843 51.47097
432 8 2 -0.141750 12.30294 14.7821 50.665729999999996
433 8 1 0.205000 16.89181 14.8343 42.05024
434 8 2 -0.141750 17.86927 14.39998 43.13937
435 8 2 -0.141750 18.46292 13.13381 43.09662
436 8 2 -0.141750 19.33775 12.72 44.108779999999996
437 8 1 0.205000 19.84285 11.27699 44.14229
438 8 2 -0.141750 19.6447 13.6058 45.14788
439 8 2 -0.141750 19.05689 14.87349 45.206869999999995
440 8 1 0.205000 19.20529 15.72766 46.465509999999995
441 8 2 -0.141750 18.17364 15.26402 44.196780000000004
442 8 1 0.205000 13.85913 8.157126 43.94979
443 8 2 -0.141750 14.56459 7.800221 45.25292
444 8 2 -0.141750 13.90883 7.998302 46.470929999999996
445 8 2 -0.141750 14.60137 7.905609 47.68197
446 8 1 0.205000 13.90869 8.288997 48.9901
447 8 2 -0.141750 15.97058 7.616693 47.660920000000004
448 8 2 -0.141750 16.63753 7.388074 46.44982
449 8 1 0.205000 18.1542 7.184512 46.432469999999995
450 8 2 -0.141750 15.92608 7.484542 45.250569999999996
451 8 3 0.057500 14.64238 30.56856 48.23244
452 8 4 0.150000 14.47341 29.38015 47.41346
453 8 5 -0.130000 15.09258 29.12415 46.198679999999996
454 8 6 -0.130000 14.63791 27.89454 45.72793
455 8 7 0.150000 13.72201 27.40024 46.64819
456 8 8 0.002500 13.00096 26.13461 46.55546
457 8 9 -0.120000 13.92144 24.94046 46.8821
458 8 10 0.140000 13.19013 23.59284 46.81326
459 8 11 -0.400000 14.1228 22.56147 47.12943
460 8 12 0.085000 13.69823 21.24679 47.14875
461 8 13 -0.115000 12.38793 20.83259 46.866240000000005
462 8 13 -0.115000 12.0544 19.48107 46.913489999999996
463 8 13 -0.115000 13.02046 18.52595 47.2483
464 8 14 0.475000 12.67416 17.02982 47.298410000000004
465 8 15 -0.630000 12.42607 16.45622 45.97656
466 8 16 0.003700 11.81196 15.17686 46.32016
467 8 16 0.003700 10.97794 15.44248 47.57219
468 8 15 -0.630000 11.4473 16.74118 48.04272
469 8 13 -0.115000 14.32805 18.93864 47.51963
470 8 13 -0.115000 14.65986 20.29021 47.472049999999996
471 8 17 0.190000 13.62634 28.32174 47.67474
472 8 3 0.057500 22.13224 14.18049 27.330265
473 8 4 0.150000 22.15287 14.81568 28.637062
474 8 5 -0.130000 22.40815 16.1544 28.89602
475 8 6 -0.130000 22.29679 16.36214 30.268762
476 8 7 0.150000 21.96169 15.14844 30.855878
477 8 8 0.002500 21.72776 14.9114 32.276898
478 8 9 -0.120000 20.35531 15.46125 32.717131
479 8 10 0.140000 20.07203 15.22722 34.207292
480 8 11 -0.400000 18.79115 15.77704 34.507683
481 8 12 0.085000 18.32032 15.72964 35.80564
482 8 13 -0.115000 19.00548 15.1418 36.878
483 8 13 -0.115000 18.4494 15.1491 38.15536
484 8 13 -0.115000 17.20707 15.75479 38.394059999999996
485 8 14 0.475000 16.55897 15.74581 39.79901
486 8 15 -0.630000 15.91117 17.0321 40.10664
487 8 16 0.003700 16.71932 17.73208 41.09853
488 8 16 0.003700 17.96857 16.86144 41.19848
489 8 15 -0.630000 17.51672 15.50447 40.89362
490 8 13 -0.115000 16.51946 16.31749 37.31072
491 8 13 -0.115000 17.07475 16.30951 36.033789999999996
492 8 17 0.190000 21.86617 14.21047 29.844391
493 8 3 0.057500 12.41785 2.989217 31.139981
494 8 4 0.150000 12.7132 4.236855 31.823984
495 8 5 -0.130000 12.50168 5.515424 31.329017999999998
496 8 6 -0.130000 12.94564 6.430602 32.28066
497 8 7 0.150000 13.44879 5.71204 33.358055
498 8 8 0.002500 14.01443 6.271616 34.581644
499 8 9 -0.120000 12.91017 6.821426 35.50803
500 8 10 0.140000 13.46659 7.400812 36.8159
501 8 11 -0.400000 12.36984 7.874648 37.594049999999996
502 8 12 0.085000 12.60916 8.428406 38.83683
503 8 13 -0.115000 13.88077 8.579689 39.40763
504 8 13 -0.115000 14.02086 9.149013 40.67136
505 8 13 -0.115000 12.89531 9.57495 41.39002
506 8 14 0.475000 12.97952 10.21997 42.79514
507 8 15 -0.630000 13.45248 11.60023 42.8294
508 8 16 0.003700 14.90916 11.52084 42.8159
509 8 16 0.003700 15.21459 10.23101 43.575289999999995
510 8 15 -0.630000 13.90106 9.609796 43.747119999999995
511 8 13 -0.115000 11.63078 9.425763 40.81198
512 8 13 -0.115000 11.49138 8.857493 39.5486
513 8 17 0.190000 13.30465 4.368468 33.064518
514 8 3 0.057500 30.05027 16.68891 55.02013
515 8 4 0.150000 28.59991 16.73088 55.09955
516 8 5 -0.130000 27.84475 17.5758 55.89991
517 8 6 -0.130000 26.49762 17.32173 55.653130000000004
518 8 7 0.150000 26.42359 16.32325 54.69005
519 8 8 0.002500 25.20315 15.76073 54.12063
520 8 9 -0.120000 24.56094 16.72924 53.1058
521 8 10 0.140000 23.27859 16.16563 52.47851
522 8 11 -0.400000 22.76613 17.13343 51.56527
523 8 12 0.085000 21.59712 16.86543 50.87938
524 8 13 -0.115000 20.8582 15.68042 51.00269
525 8 13 -0.115000 19.68758 15.50241 50.26914
526 8 13 -0.115000 19.23066 16.504 49.40163
527 8 14 0.475000 17.94374 16.36659 48.55303
528 8 15 -0.630000 16.78923 15.7473 49.201080000000005
529 8 16 0.003700 16.86126 14.30355 48.98041
530 8 16 0.003700 17.86584 14.15625 47.84603
531 8 15 -0.630000 18.0637 15.51942 47.36771
532 8 13 -0.115000 19.97521 17.68143 49.27987
533 8 13 -0.115000 21.14585 17.85843 50.01271
534 8 17 0.190000 27.71862 15.97687 54.35085
535 8 3 0.057500 2.468696 3.615445 55.23423
536 8 4 0.150000 3.150411 4.856694 54.90851
537 8 5 -0.130000 3.046747 6.056387 55.59729
538 8 6 -0.130000 3.832811 7.003212 54.94489
539 8 7 0.150000 4.40846 6.38839 53.840090000000004
540 8 8 0.002500 5.311538 7.011142 52.877449999999996
541 8 9 -0.120000 6.725671 7.185298 53.468779999999995
542 8 10 0.140000 7.706648 7.830646 52.48043
543 8 11 -0.400000 8.975435 7.941922 53.121430000000004
544 8 12 0.085000 10.03595 8.499085 52.43356
545 8 13 -0.115000 9.965089 8.979549 51.11841
546 8 13 -0.115000 11.09151 9.526496 50.50804
547 8 13 -0.115000 12.31001 9.601843 51.19716
548 8 14 0.475000 13.59611 10.20724 50.58073
549 8 15 -0.630000 13.57146 11.65328 50.371790000000004
550 8 16 0.003700 12.94343 11.85733 49.07167
551 8 16 0.003700 13.3088 10.6044 48.27644
552 8 15 -0.630000 13.97498 9.736116 49.2474
553 8 13 -0.115000 12.37254 9.122716 52.509479999999996
554 8 13 -0.115000 11.24605 8.576651 53.11904
555 8 17 0.190000 3.979315 5.073917 53.82602
556 8 3 0.057500 29.33513 2.068151 39.11283
557 8 4 0.150000 28.71291 3.33938 39.44222
558 8 5 -0.130000 28.72623 4.487148 38.66306
559 8 6 -0.130000 28.04478 5.488827 39.35042
560 8 7 0.150000 27.62579 4.9604 40.565020000000004
561 8 8 0.002500 26.87034 5.661802 41.59825
562 8 9 -0.120000 25.38915 5.821044 41.19752
563 8 10 0.140000 24.55856 6.537011 42.27131
564 8 11 -0.400000 23.21328 6.628529 41.80721
565 8 12 0.085000 22.2574 7.217485 42.61225
566 8 13 -0.115000 22.51375 7.762814 43.87899
567 8 13 -0.115000 21.48066 8.333274 44.618539999999996
568 8 13 -0.115000 20.17877 8.367032 44.10565
569 8 14 0.475000 19.02317 8.994896 44.90245
570 8 15 -0.630000 19.10026 10.44919 45.10996
571 8 16 0.003700 19.41757 10.65844 46.516040000000004
572 8 16 0.003700 18.71201 9.501517 47.192409999999995
573 8 15 -0.630000 18.93569 8.418954 46.248490000000004
574 8 13 -0.115000 19.9253 7.826878 42.84227
575 8 13 -0.115000 20.95971 7.257157 42.1042
576 8 17 0.190000 28.04494 3.64346 40.61146
577 8 18 0.060000 14.16087 17.29089 45.18539
578 8 18 0.060000 14.39902 15.66882 45.75575
579 8 19 0.159400 12.98502 13.8085 44.31013
580 8 18 0.060000 11.76638 12.4765 41.928380000000004
581 8 18 0.060000 13.12925 12.29955 40.85998
582 8 19 0.159400 13.57042 14.50364 40.13235
583 8 18 0.060000 13.98816 16.76082 39.33783
584 8 18 0.060000 14.13891 18.11259 40.43953
585 8 19 0.159400 14.16235 17.69484 42.931799999999996
586 8 18 0.060000 11.6742 17.96899 49.72237
587 8 18 0.060000 10.51796 16.67045 49.924710000000005
588 8 19 0.159400 14.10951 17.5435 49.89478
589 8 18 0.060000 16.43922 17.27771 50.59358
590 8 18 0.060000 17.02314 15.77104 51.30266
591 8 19 0.159400 15.43346 13.82964 51.55408
592 8 18 0.060000 13.59954 12.2289 52.391760000000005
593 8 18 0.060000 12.01439 12.32118 51.63424
594 8 19 0.159400 11.3056 14.3773 50.565529999999995
595 8 18 0.060000 16.37277 13.94339 41.69334
596 8 18 0.060000 16.14557 15.4748 42.5111
597 8 19 0.159400 18.21079 12.45475 42.294
598 8 18 0.060000 19.70912 10.8538 43.14505
599 8 18 0.060000 20.91347 11.25408 44.35389
600 8 19 0.159400 20.29558 13.28625 45.94897
601 8 18 0.060000 20.13781 15.48327 46.9781
602 8 18 0.060000 19.24899 16.78065 46.18202
603 8 19 0.159400 17.68163 16.22421 44.26603
604 8 18 0.060000 14.32339 7.643177 43.10638
605 8 18 0.060000 12.81899 7.831371 44.00734
606 8 19 0.159400 12.86892 8.293448 46.46898
607 8 18 0.060000 12.86848 7.959733 48.963480000000004
608 8 18 0.060000 14.3966 7.764464 49.81376
609 8 19 0.159400 16.52534 7.602008 48.588899999999995
610 8 18 0.060000 18.45762 6.735003 47.379549999999995
611 8 18 0.060000 18.41908 6.47309 45.648160000000004
612 8 19 0.159400 16.44378 7.368347 44.309129999999996
613 8 18 0.060000 13.73046 30.76908 48.794920000000005
614 8 18 0.060000 14.87941 31.42547 47.60189
615 8 18 0.060000 15.46176 30.40347 48.93133
616 8 19 0.159400 15.79978 29.83158 45.78024
617 8 19 0.159400 14.87492 27.33535 44.82884
618 8 18 0.060000 12.14871 26.16428 47.23666
619 8 18 0.060000 12.57899 26.04996 45.55266
620 8 18 0.060000 14.76471 24.91874 46.18998
621 8 18 0.060000 14.34341 25.06211 47.88125
622 8 18 0.060000 12.78332 23.44026 45.8114
623 8 18 0.060000 12.36058 23.58388 47.52363
624 8 19 0.159400 11.61628 21.54126 46.60718
625 8 19 0.159400 11.04425 19.16773 46.69086
626 8 18 0.060000 13.51118 16.49312 47.75452
627 8 18 0.060000 12.55999 14.40691 46.52208
628 8 18 0.060000 11.19941 14.79827 45.50075
629 8 18 0.060000 9.924927 15.49692 47.29287
630 8 18 0.060000 11.1184 14.62526 48.27863
631 8 19 0.159400 15.0901 18.21208 47.767070000000004
632 8 19 0.159400 15.67231 20.59993 47.68673
633 8 19 0.159400 12.99277 28.23042 48.546890000000005
634 8 18 0.060000 21.43953 13.33894 27.333137
635 8 18 0.060000 23.1325 13.81604 27.097895
636 8 18 0.060000 21.83006 14.90083 26.570167
637 8 19 0.159400 22.6459 16.83709 28.087712
638 8 19 0.159400 22.41989 17.25402 30.874477